# vtk DataFile Version 3.0
vtk output
ASCII
DATASET RECTILINEAR_GRID
DIMENSIONS 4 4 1
X_COORDINATES 4 float
0 2 4 8
Y_COORDINATES 4 float
1 2 3 4
Z_COORDINATES 1 float
0
CELL_DATA 9
FIELD FieldData 1
cellscalar 1 9 float
0.0 1.0 2.0 3.0 4.0 5.0 6.0 7.0 8.0 
POINT_DATA 16
