# vtk DataFile Version 3.0
vtk output
ASCII
DATASET STRUCTURED_GRID
DIMENSIONS 2 2 2
POINTS 8 float
0.0  0.0  0.0
1.0  0.0  0.0
0.0  2.0  0.0
1.0  2.0  0.0
0.0  0.0  8.0
1.0  0.0  8.0
0.0  2.0  8.0
1.0  2.0  8.0

CELL_DATA 1
SCALARS cellvalue float
LOOKUP_TABLE default
1489
VECTORS cellvector float
2 4 6.7 

POINT_DATA 8
SCALARS ptvalues float
LOOKUP_TABLE default
0 1 2 3 4 5 6 7
VECTORS ptvectors float
0.0 0.1 0.0 
0.0 0.2 0.0 
0.0 0.3 0.0 
0.0 0.4 0.0 
0.0 0.5 0.0 
0.0 0.6 0.0 
0.0 0.7 0.0 
0.0 0.8 0.0 
