# vtk DataFile Version 3.0
vtk output
ASCII
DATASET UNSTRUCTURED_GRID
POINTS 4 float
0 0 0
1 0 0
0 1 0
1.1 1.1 0
CELLS 1 5
4 0 1 3 2
CELL_TYPES 1
9
CELL_DATA 1
POINT_DATA 4
FIELD FieldData 1
nodal 1 4 float
0 1 4 7.5
