<?xml version="1.0"?>
<VTKFile type="UnstructuredGrid" version="0.1" byte_order="LittleEndian" compressor="vtkZLibDataCompressor">
  <UnstructuredGrid>
    <Piece NumberOfPoints="13" NumberOfCells="8">
      <CellData>
        <DataArray type="Float32" Name="temperature" format="ascii">
          11 13 15 17 19 11
          12 10 18 16 14 12
        </DataArray>
        <DataArray type="Float32" Name="pressure" format="ascii">
          4 2 6 8 10 12
          11 9 7 5 3 1
        </DataArray>
      </CellData>
      <Points>
        <DataArray type="Float32" NumberOfComponents="3" format="ascii">
          -1 -1 0 -1 -1 0
          1 -1 0 1 1 0
          -1 1 0 0 -2 0
          2 0 0 0 2 0
          -2 0 0 0 -1 0
          1 0 0 0 1 0
          -1 0 0
        </DataArray>
      </Points>
      <Cells>
        <DataArray type="Int32" Name="connectivity" format="ascii">
          1 5 9 9 5 2
          2 6 10 10 6 3
          11 3 7 11 7 4
          8 12 4 1 12 8
        </DataArray>
        <DataArray type="Int32" Name="offsets" format="ascii">
          3 6 9 12 15 18
          21 24
        </DataArray>
        <DataArray type="UInt8" Name="types" format="ascii">
          5 5 5 5 5 5
          5 5
        </DataArray>
      </Cells>
    </Piece>
  </UnstructuredGrid>
</VTKFile>
