<?xml version="1.0"?>
<!-- Lets make 8 3d tets from 10 points -->
<!-- Create some cell data -->
<!-- Create some points -->
<!-- Create some cells from the points-->

<VTKFile type="UnstructuredGrid" version="0.1" byte_order="LittleEndian" compressor="vtkZLibDataCompressor">
  <UnstructuredGrid>
    <Piece NumberOfPoints="10" NumberOfCells="8">
      <CellData>
        <DataArray type="Float32" Name="temperature" format="ascii">
          1 3 5 7 9 1 2 1
        </DataArray>
        <DataArray type="Float32" Name="pressure" format="ascii">
          2 4 6 8 10 12 14 16
        </DataArray>
      </CellData>
      <Points>
        <DataArray type="Float32" NumberOfComponents="3" format="ascii">
          0 0 1   -1 -1 0
          1 -1 0   1 1 0
          -1 1 0   0 -1 0
          1  0 0   0 1 0
          -1 0 0   0 0 0
        </DataArray>
      </Points>
      <Cells>
        <DataArray type="Int32" Name="connectivity" format="ascii">
          1 5 0 8 
          5 2 6 0 
          0 6 3 7
          0 7 4 8
          0 9 5 6
          0 9 6 7
          0 9 7 8
          0 9 8 5
        </DataArray>
        <DataArray type="Int32" Name="offsets" format="ascii">
          4 8 12 16 20 24 28 32
        </DataArray>
        <DataArray type="UInt8" Name="types" format="ascii">
         10 10 10 10 10 10 10 10
        </DataArray>
      </Cells>
    </Piece>
  </UnstructuredGrid>
</VTKFile>
