<?xml version="1.0"?>
<!-- We are going to make a cube.  This cube will have colored points (nodes), and cell data (elements) -->
<!-- PolyData - 8 points.  12 polys (which is 6 sides * 2 triangles/side) -->
<!-- Point - We have 8 points.  XYZ per point.  ascii data. -->
<!-- PointData - We have data for the points.  Notice 8 points, 8 pieces of data.  -->
<!-- CellData - we have data on each cell.  In this case, a cell is a triange, so 12 pieces of data. -->
<!--   Scalars and normals.-->
<!-- Polys.  Notice that there are groups of 12 - since there are 12 polys. -->
<!--   Index into the polys.  3 indexes per poly.  Note that they are 0 based.-->
<!--   Offsets to the data.  Since we have 3 points per poly, lets offset by 3's.  .-->

<VTKFile type="PolyData" version="0.1">
  <PolyData>
    <Piece NumberOfPoints="8" NumberOfPolys="12">
      <Points>
        <DataArray type="Float32" NumberOfComponents="3" format="ascii">
          0 0 0  
          1 0 0  
          1 1 0  
          0 1 0  
          0 0 1  
          1 0 1  
          1 1 1  
          0 1 1 
        </DataArray>
      </Points>
      <PointData Scalars="my_scalars">
        <DataArray type="Float32" Name="my_scalars" format="ascii">
          0 1 2 3 4 5 6 7
        </DataArray>
      </PointData>

      <CellData Scalars="cell_scalars" Normals="cell_normals">
        <DataArray type="Int32" Name="cell_scalars" format="ascii">
          0 1 2 3 4 5 6 7 8 9 10 11
        </DataArray>
        <DataArray type="Float32" Name="cell_normals" NumberOfComponents="3" format="ascii">
          0 0  1 
          0 0  1 
          0 0 -1 
          0 0 -1 

          0 -1 0
          0 -1 0 
          0  1 0 
          0  1 0 

          -1 0 0
          -1 0 0
           1 0 0
           1 0 0
        </DataArray>
      </CellData>

      <Polys>
        <DataArray type="Int32" Name="connectivity" format="ascii">
          0 1 2
          2 3 0
          4 5 6
          6 7 4

          0 4 1
          4 5 1
          3 7 2
          7 6 2

          0 3 7
          7 4 0
          1 2 6
          6 5 1
        </DataArray>
        <DataArray type="Int32" Name="offsets" format="ascii">
          3 6 9 12 15 18 21 24 27 30 33 36
        </DataArray>
      </Polys>
    </Piece>
  </PolyData>
</VTKFile>