# vtk DataFile Version 3.0
vtk output
ASCII
DATASET STRUCTURED_GRID
DIMENSIONS 2 2 1
POINTS 4 float
0 0 0
1 0 0
0 1 0
1.1 1.1 0
CELL_DATA 1
POINT_DATA 4
FIELD FieldData 1
nodal 1 4 float
0 1 2 3 
