# vtk DataFile Version 3.0
vtk output
ASCII
DATASET RECTILINEAR_GRID
DIMENSIONS 2 2 1
X_COORDINATES 2 float
0 1
Y_COORDINATES 2 float
0 1
Z_COORDINATES 1 float
0
CELL_DATA 1
POINT_DATA 4
FIELD FieldData 1
nodal 1 4 float
0 1 1.1 2
